 Gaussian 16, Revision C.01,
 Gaussian 16:  ES64L-G16RevC.01  3-Jul-2019

 ----------------------------------------------------------------------
 #p PBE1PBE/GEN/GEN GFInput GFOldPrint 5D 7F IOP(4/69=2, 6/7=3) Scf=(XQ
 C, NoVarAcc,MaxCycle=100,conver=8) Integral=(Grid=UltraFine) Guess=Har
 ris Symm=None Opt Freq=(Raman,InternalModes,SaveNormalModes) SCRF=(COS
 MO,Read)
 ----------------------------------------------------------------------

 ----------------------
 h2o.pbe0.optg-freq.chk
 ----------------------
 Symbolic Z-matrix:
 Charge =  1 Multiplicity = 1

 SCF Done:  E(RPBE1PBE) =  -76.7044545059     A.U. after    8 cycles
 SCF Done:  E(RPBE1PBE) =  -76.7457695134     A.U. after    8 cycles
 SCF Done:  E(RPBE1PBE) =  -76.7842901878     A.U. after    8 cycles
 SCF Done:  E(RPBE1PBE) =  -76.7972713311     A.U. after    8 cycles
 SCF Done:  E(RPBE1PBE) =  -76.7989854308     A.U. after    8 cycles
 SCF Done:  E(RPBE1PBE) =  -76.7990653376     A.U. after    7 cycles
 Optimization completed.
    -- Stationary point found.
 Normal termination of Gaussian 16 at Thu May  2 22:39:12 2024.

 ----------------------------------------------------------------------
 #P Geom=AllCheck Guess=TCheck SCRF=Check Test GenChk RPBE1PBE/Gen/Gen
 Freq
 ----------------------------------------------------------------------

 Structure from the checkpoint file:  "h3o-p.pbe0.optg-freq.chk"
 ----------------------
 h2o.pbe0.optg-freq.chk
 ----------------------
 Charge =  1 Multiplicity = 1

                          Input orientation:
 ---------------------------------------------------------------------
 Center     Atomic      Atomic             Coordinates (Angstroms)
 Number     Number       Type             X           Y           Z
 ---------------------------------------------------------------------
      1          8           0        0.086179    0.316258    0.001593
      2          1           0        0.991541   -0.049163   -0.005145
      3          1           0       -0.032639    0.867526    0.798933
      4          1           0       -0.045080    0.865379   -0.795380
 ---------------------------------------------------------------------

 SCF Done:  E(RPBE1PBE) =  -76.7990653376     A.U. after    1 cycles

 Alpha  occ. eigenvalues --  -19.37013  -1.21162  -0.67720  -0.67681  -0.50018
 Alpha virt. eigenvalues --    0.00328   0.09409   0.09416   0.30994   0.31035
 Alpha virt. eigenvalues --    0.37099   0.40109   0.52297   0.52303   0.60770
 Alpha virt. eigenvalues --    1.01777   1.01856   1.38936   1.45310   1.45331

 Mulliken charges:
               1
     1  O   -0.397485
     2  H    0.465712
     3  H    0.465892
     4  H    0.465881
 Sum of Mulliken charges =   1.00000

 Dipole moment (field-independent basis, Debye):
    X=              1.9993    Y=              3.2981    Z=             -0.0075  Tot=              3.8568
 Quadrupole moment (field-independent basis, Debye-Ang):
   XX=             -3.6690   YY=             -2.7348   ZZ=             -2.6169
   XY=             -0.7331   XZ=              0.0141   YZ=              0.0147

  Exact polarizability:       6.106      -0.898       5.893       0.007       0.008       6.914
 Approx polarizability:       6.332      -1.050       6.080       0.008       0.010       7.276

                      1                      2                      3
                      A                      A                      A
 Frequencies --   1045.6116              1670.7873              1704.2181
 Red. masses --      1.1651                 1.0630                 1.0629
 Frc consts  --      0.7505                 1.7484                 1.8188
 IR Inten    --    529.2239               134.0082               131.6508
 Raman Activ --      0.8489                 3.5988                 3.5966

                      4                      5                      6
                      A                      A                      A
 Frequencies --   3650.8551              3717.8351              3719.2664
 Red. masses --      1.0221                 1.0846                 1.0847
 Frc consts  --      8.0267                 8.8330                 8.8402
 IR Inten    --     67.3432               493.4368               494.9319
 Raman Activ --     70.8903                17.7150                17.7106

 - Thermochemistry -
 -------------------
 Temperature   298.150 Kelvin.  Pressure   1.00000 Atm.
 Atom     1 has atomic number  8 and mass  15.99491

 Molecular mass:    19.01839 amu.
 Principal axes and moments of inertia in atomic units:
                           1         2         3
     Eigenvalues --     5.53733   5.55263   9.13338
           X           -0.01081   0.74778   0.66386
           Y            0.01777  -0.66365   0.74783
           Z            0.99978   0.01987  -0.00611
 This molecule is an asymmetric top.
 Rotational symmetry number  1.
 Rotational temperatures (Kelvin)     15.64182    15.59872     9.48323
 Rotational constants (GHZ):         325.92257   325.02447   197.59849
 Zero-point vibrational energy      92761.9 (Joules/Mol)
                                   22.17062 (Kcal/Mol)
 Vibrational temperatures:   1504.40  2403.89  2451.99  5252.77  5349.14
          (Kelvin)           5351.19

 Zero-point correction=                           0.035331 (Hartree/Particle)
 Thermal correction to Energy=                    0.038199
 Thermal correction to Enthalpy=                  0.039143
 Thermal correction to Gibbs Free Energy=         0.016212
 Sum of electronic and zero-point Energies=            -76.763734
 Sum of electronic and thermal Energies=               -76.760866
 Sum of electronic and thermal Enthalpies=             -76.759922
 Sum of electronic and thermal Free Energies=          -76.782854

                     E (Thermal)             CV                S
                      KCal/Mol        Cal/Mol-Kelvin    Cal/Mol-Kelvin
 Total                   23.970              6.368             48.263
 Electronic               0.000              0.000              0.000
 Translational            0.889              2.981             34.771
 Rotational               0.889              2.981             13.405
 Vibrational             22.193              0.407              0.088

 Optimization completed.
    -- Stationary point found.
 Normal termination of Gaussian 16 at Thu May  2 22:39:23 2024.
