 Gaussian 16, Revision C.01,
 Gaussian 16:  ES64L-G16RevC.01  3-Jul-2019

 ----------------------------------------------------------------------
 #p PBE1PBE/GEN/GEN GFInput GFOldPrint 5D 7F IOP(4/69=2, 6/7=3) Scf=(XQ
 C, NoVarAcc,MaxCycle=100,conver=8) Integral=(Grid=UltraFine) Guess=Har
 ris Symm=None Opt Freq=(Raman,InternalModes,SaveNormalModes) SCRF=(COS
 MO,Read)
 ----------------------------------------------------------------------

 ------------------------
 no3-m.pbe0.optg-freq.chk
 ------------------------
 Symbolic Z-matrix:
 Charge = -1 Multiplicity = 1

 SCF Done:  E(RPBE1PBE) =  -280.154850654     A.U. after   11 cycles
 SCF Done:  E(RPBE1PBE) =  -280.251584513     A.U. after   10 cycles
 SCF Done:  E(RPBE1PBE) =  -280.270642275     A.U. after   11 cycles
 SCF Done:  E(RPBE1PBE) =  -280.297459187     A.U. after   10 cycles
 SCF Done:  E(RPBE1PBE) =  -280.299487323     A.U. after   10 cycles
 SCF Done:  E(RPBE1PBE) =  -280.300794700     A.U. after   10 cycles
 SCF Done:  E(RPBE1PBE) =  -280.300857038     A.U. after    9 cycles
 SCF Done:  E(RPBE1PBE) =  -280.300086854     A.U. after    9 cycles
 SCF Done:  E(RPBE1PBE) =  -280.300859370     A.U. after    8 cycles
 Optimization completed.
    -- Stationary point found.
 Normal termination of Gaussian 16 at Fri Feb 23 18:48:19 2024.

 ----------------------------------------------------------------------
 #P Geom=AllCheck Guess=TCheck SCRF=Check Test GenChk RPBE1PBE/Gen/Gen
 Freq
 ----------------------------------------------------------------------

 Structure from the checkpoint file:  "no3-m.pbe0.optg-freq.chk"
 ------------------------
 no3-m.pbe0.optg-freq.chk
 ------------------------
 Charge = -1 Multiplicity = 1

                          Input orientation:
 ---------------------------------------------------------------------
 Center     Atomic      Atomic             Coordinates (Angstroms)
 Number     Number       Type             X           Y           Z
 ---------------------------------------------------------------------
      1          7           0       -0.000031   -0.000071   -0.000000
      2          8           0        0.000021    0.621803    1.077017
      3          8           0        0.000021    0.621803   -1.077017
      4          8           0       -0.000012   -1.243535    0.000000
 ---------------------------------------------------------------------

 SCF Done:  E(RPBE1PBE) =  -280.300859370     A.U. after    1 cycles

 Alpha  occ. eigenvalues --  -19.19437 -19.19428 -19.19427 -14.62564  -1.26514
 Alpha  occ. eigenvalues --   -1.04063  -1.04050  -0.60974  -0.54909  -0.52249
 Alpha  occ. eigenvalues --   -0.52248  -0.32732  -0.32725  -0.30314  -0.30307
 Alpha  occ. eigenvalues --   -0.25215
 Alpha virt. eigenvalues --   -0.00604   0.16256   0.28317   0.28318   0.30182
 Alpha virt. eigenvalues --    0.35857   0.39412   0.39431   0.45926   0.49657
 Alpha virt. eigenvalues --    0.49660   0.52572   0.52585   0.55769   0.55772

 Mulliken charges:
               1
     1  N    0.501225
     2  O   -0.500317
     3  O   -0.500317
     4  O   -0.500592
 Sum of Mulliken charges =  -1.00000

 Dipole moment (field-independent basis, Debye):
    X=             -0.0001    Y=              0.0004    Z=              0.0000  Tot=              0.0005
 Quadrupole moment (field-independent basis, Debye-Ang):
   XX=            -22.0282   YY=            -29.6812   ZZ=            -29.6844
   XY=             -0.0001   XZ=              0.0000   YZ=              0.0000

  Exact polarizability:      16.165       0.000      37.578       0.000      -0.000      37.594
 Approx polarizability:      17.400       0.000      43.760       0.000      -0.000      43.772

                      1                      2                      3
                      A                      A                      A
 Frequencies --    737.6140               739.6782               869.9214
 Red. masses --     15.8317                15.8303                14.4084
 Frc consts  --      5.0750                 5.1030                 6.4243
 IR Inten    --      2.4144                 2.7047                24.6099
 Raman Activ --      8.3166                 8.4698                 0.0006

                      4                      5                      6
                      A                      A                      A
 Frequencies --   1125.0175              1413.3076              1414.9070
 Red. masses --     15.9949                14.5434                14.5447
 Frc consts  --     11.9275                17.1155                17.1558
 IR Inten    --      0.0003              1054.0093              1051.9995
 Raman Activ --     59.2258                 2.1885                 2.2716

 - Thermochemistry -
 -------------------
 Temperature   298.150 Kelvin.  Pressure   1.00000 Atm.
 Atom     1 has atomic number  7 and mass  14.00307

 Molecular mass:    61.98782 amu.
 Principal axes and moments of inertia in atomic units:
                           1         2         3
     Eigenvalues --   132.49620 132.51196 265.00816
           X           -0.00000   0.00002   1.00000
           Y           -0.00000   1.00000  -0.00002
           Z            1.00000   0.00000  -0.00000
 This molecule is an asymmetric top.
 Rotational symmetry number  1.
 Rotational temperatures (Kelvin)      0.65371     0.65363     0.32683
 Rotational constants (GHZ):          13.62108    13.61946     6.81013
 Zero-point vibrational energy      37685.0 (Joules/Mol)
                                    9.00694 (Kcal/Mol)
 Vibrational temperatures:   1061.26  1064.23  1251.62  1618.65  2033.43
          (Kelvin)           2035.74

 Zero-point correction=                           0.014353 (Hartree/Particle)
 Thermal correction to Energy=                    0.017479
 Thermal correction to Enthalpy=                  0.018423
 Thermal correction to Gibbs Free Energy=        -0.011094
 Sum of electronic and zero-point Energies=           -280.286506
 Sum of electronic and thermal Energies=              -280.283380
 Sum of electronic and thermal Enthalpies=            -280.282436
 Sum of electronic and thermal Free Energies=         -280.311953

                     E (Thermal)             CV                S
                      KCal/Mol        Cal/Mol-Kelvin    Cal/Mol-Kelvin
 Total                   10.968              8.479             62.125
 Electronic               0.000              0.000              0.000
 Translational            0.889              2.981             38.292
 Rotational               0.889              2.981             23.058
 Vibrational              9.191              2.518              0.774

 Optimization completed.
    -- Stationary point found.
 Normal termination of Gaussian 16 at Fri Feb 23 18:48:57 2024.
