 Gaussian 16, Revision C.01,
 Gaussian 16:  ES64L-G16RevC.01  3-Jul-2019

 ----------------------------------------------------------------------
 #p PBE1PBE/GEN/GEN GFInput GFOldPrint 5D 7F IOP(4/69=2, 6/7=3) Scf=(XQ
 C, NoVarAcc,MaxCycle=100,conver=8) Integral=(Grid=UltraFine) Guess=Che
 ckPoint Geom=CheckPoint Opt Freq=(Raman,InternalModes,SaveNormalModes)
  SCRF=(COSMO,Read)
 ----------------------------------------------------------------------

 -----------------------
 oh-m.pbe0.optg-freq.chk
 -----------------------
 Structure from the checkpoint file:  "oh-m.pbe0.optg-freq.chk"
 Charge = -1 Multiplicity = 1

 SCF Done:  E(RPBE1PBE) =  -75.8760410401     A.U. after    5 cycles
 Optimization completed.
    -- Stationary point found.
 Normal termination of Gaussian 16 at Thu May  2 23:32:06 2024.

 ----------------------------------------------------------------------
 #P Geom=AllCheck Guess=TCheck SCRF=Check Test GenChk RPBE1PBE/Gen/Gen
 Freq
 ----------------------------------------------------------------------

 Structure from the checkpoint file:  "oh-m.pbe0.optg-freq.chk"
 -----------------------
 oh-m.pbe0.optg-freq.chk
 -----------------------
 Charge = -1 Multiplicity = 1

                         Standard orientation:
 ---------------------------------------------------------------------
 Center     Atomic      Atomic             Coordinates (Angstroms)
 Number     Number       Type             X           Y           Z
 ---------------------------------------------------------------------
      1          8           0       -0.000000    0.000000    0.106756
      2          1           0        0.000000   -0.000000   -0.854045
 ---------------------------------------------------------------------

 SCF Done:  E(RPBE1PBE) =  -75.8760410401     A.U. after    1 cycles

 The electronic state is 1-SG.
 Alpha  occ. eigenvalues --  -19.06413  -0.85693  -0.34714  -0.21219  -0.21219
 Alpha virt. eigenvalues --    0.09169   0.43654   0.48076   0.48076   0.48410
 Alpha virt. eigenvalues --    0.64309   1.34064   1.34064   1.58569   1.58571
 Alpha virt. eigenvalues --    1.68726   2.18403   2.18403   2.23174   2.68184

 Mulliken charges:
               1
     1  O   -1.280851
     2  H    0.280851
 Sum of Mulliken charges =  -1.00000

 Dipole moment (field-independent basis, Debye):
    X=              0.0000    Y=             -0.0000    Z=             -2.1442  Tot=              2.1442
 Quadrupole moment (field-independent basis, Debye-Ang):
   XX=             -8.9693   YY=             -8.9693   ZZ=             -6.8647
   XY=             -0.0000   XZ=             -0.0000   YZ=             -0.0000

  Exact polarizability:       7.690       0.000       7.690      -0.000       0.000      11.399
 Approx polarizability:       6.563      -0.000       6.563      -0.000       0.000      10.888

                      1
                     SG
 Frequencies --   3836.4025
 Red. masses --      1.0671
 Frc consts  --      9.2534
 IR Inten    --     14.4740
 Raman Activ --    192.2073

 - Thermochemistry -
 -------------------
 Temperature   298.150 Kelvin.  Pressure   1.00000 Atm.
 Atom     1 has atomic number  8 and mass  15.99491

 Molecular mass:    17.00274 amu.
 Principal axes and moments of inertia in atomic units:
                           1         2         3
     Eigenvalues --     0.00000   3.12545   3.12545
           X           -0.00000  -0.00000   1.00000
           Y            0.00000   1.00000   0.00000
           Z            1.00000  -0.00000   0.00000
 This molecule is a prolate symmetric top.
 Rotational symmetry number  1.
 Rotational temperature (Kelvin)     27.71249
 Rotational constant (GHZ):         577.434515
 Zero-point vibrational energy      22946.8 (Joules/Mol)
                                    5.48441 (Kcal/Mol)
 Vibrational temperatures:   5519.73
          (Kelvin)

 Zero-point correction=                           0.008740 (Hartree/Particle)
 Thermal correction to Energy=                    0.011100
 Thermal correction to Enthalpy=                  0.012045
 Thermal correction to Gibbs Free Energy=        -0.007505
 Sum of electronic and zero-point Energies=            -75.867301
 Sum of electronic and thermal Energies=               -75.864941
 Sum of electronic and thermal Enthalpies=             -75.863996
 Sum of electronic and thermal Free Energies=          -75.883546

                     E (Thermal)             CV                S
                      KCal/Mol        Cal/Mol-Kelvin    Cal/Mol-Kelvin
 Total                    6.966              4.968             41.145
 Electronic               0.000              0.000              0.000
 Translational            0.889              2.981             34.437
 Rotational               0.592              1.987              6.708
 Vibrational              5.484              0.000              0.000

 Optimization completed.
    -- Stationary point found.
 Normal termination of Gaussian 16 at Thu May  2 23:32:13 2024.
