 Gaussian 16, Revision C.01,
 Gaussian 16:  ES64L-G16RevC.01  3-Jul-2019

 ----------------------------------------------------------------------
 #p PBE1PBE/GEN/GEN GFInput GFOldPrint 5D 7F IOP(4/69=2, 6/7=3) Scf=(XQ
 C, NoVarAcc,MaxCycle=100,conver=8) Integral=(Grid=UltraFine) Guess=Har
 ris Symm=None Opt Freq=(Raman,InternalModes,SaveNormalModes) SCRF=(COS
 MO,Read)
 ----------------------------------------------------------------------

 ----------------------
 h2o.pbe0.optg-freq.chk
 ----------------------
 Symbolic Z-matrix:
 Charge =  0 Multiplicity = 1

 SCF Done:  E(RPBE1PBE) =  -76.3052414432     A.U. after    8 cycles
 SCF Done:  E(RPBE1PBE) =  -76.3453128576     A.U. after    8 cycles
 SCF Done:  E(RPBE1PBE) =  -76.3839366479     A.U. after    8 cycles
 SCF Done:  E(RPBE1PBE) =  -76.3869414102     A.U. after    8 cycles
 SCF Done:  E(RPBE1PBE) =  -76.3892713150     A.U. after    8 cycles
 SCF Done:  E(RPBE1PBE) =  -76.3892900546     A.U. after    7 cycles
 Optimization completed.
    -- Stationary point found.
 Normal termination of Gaussian 16 at Thu Feb 15 23:41:58 2024.

 ----------------------------------------------------------------------
 #P Geom=AllCheck Guess=TCheck SCRF=Check Test GenChk RPBE1PBE/Gen/Gen
 Freq
 ----------------------------------------------------------------------

 Structure from the checkpoint file:  "h2o.pbe0.optg-freq.chk"
 ----------------------
 h2o.pbe0.optg-freq.chk
 ----------------------
 Charge =  0 Multiplicity = 1

                          Input orientation:
 ---------------------------------------------------------------------
 Center     Atomic      Atomic             Coordinates (Angstroms)
 Number     Number       Type             X           Y           Z
 ---------------------------------------------------------------------
      1          8           0        0.000000    0.273405   -0.000000
      2          1           0        0.000000    0.863298    0.760098
      3          1           0        0.000000    0.863298   -0.760098
 ---------------------------------------------------------------------

 SCF Done:  E(RPBE1PBE) =  -76.3892900546     A.U. after    1 cycles

 Alpha  occ. eigenvalues --  -19.20230  -1.03693  -0.54115  -0.40960  -0.33241
 Alpha virt. eigenvalues --    0.05045   0.13041   0.36998   0.41508   0.43237
 Alpha virt. eigenvalues --    0.45565   0.59217   0.61601   1.17213   1.20148
 Alpha virt. eigenvalues --    1.30105   1.54506   1.65126   1.78049   2.01055

 Mulliken charges:
               1
     1  O   -0.741680
     2  H    0.370840
     3  H    0.370840
 Sum of Mulliken charges =  -0.00000

 Dipole moment (field-independent basis, Debye):
    X=              0.0000    Y=              2.4433    Z=             -0.0000  Tot=              2.4433
 Quadrupole moment (field-independent basis, Debye-Ang):
   XX=             -7.6046   YY=             -4.3192   ZZ=             -4.1618
   XY=              0.0000   XZ=             -0.0000   YZ=             -0.0000

  Exact polarizability:       6.072      -0.000       7.365       0.000       0.000       8.884
 Approx polarizability:       5.565      -0.000       7.338       0.000       0.000       9.109

                      1                      2                      3
                      A                      A                      A
 Frequencies --   1608.1113              3829.9718              3916.8995
 Red. masses --      1.0820                 1.0458                 1.0817
 Frc consts  --      1.6486                 9.0385                 9.7781
 IR Inten    --    128.6919                33.0979               120.3792
 Raman Activ --      6.8424               106.6216                47.9752

 - Thermochemistry -
 -------------------
 Temperature   298.150 Kelvin.  Pressure   1.00000 Atm.
 Atom     1 has atomic number  8 and mass  15.99491

 Molecular mass:    18.01056 amu.
 Principal axes and moments of inertia in atomic units:
                           1         2         3
     Eigenvalues --     2.22441   4.15865   6.38305
           X            0.00000   0.00000   1.00000
           Y            0.00000   1.00000   0.00000
           Z            1.00000  -0.00000   0.00000
 This molecule is an asymmetric top.
 Rotational symmetry number  1.
 Rotational temperatures (Kelvin)     38.93801    20.82744    13.56936
 Rotational constants (GHZ):         811.33654   433.97334   282.73961
 Zero-point vibrational energy      55955.2 (Joules/Mol)
                                   13.37362 (Kcal/Mol)
 Vibrational temperatures:   2313.71  5510.48  5635.54
          (Kelvin)

 Zero-point correction=                           0.021312 (Hartree/Particle)
 Thermal correction to Energy=                    0.024148
 Thermal correction to Enthalpy=                  0.025092
 Thermal correction to Gibbs Free Energy=         0.003012
 Sum of electronic and zero-point Energies=            -76.367978
 Sum of electronic and thermal Energies=               -76.365142
 Sum of electronic and thermal Enthalpies=             -76.364198
 Sum of electronic and thermal Free Energies=          -76.386278

                     E (Thermal)             CV                S
                      KCal/Mol        Cal/Mol-Kelvin    Cal/Mol-Kelvin
 Total                   15.153              6.013             46.471
 Electronic               0.000              0.000              0.000
 Translational            0.889              2.981             34.608
 Rotational               0.889              2.981             11.855
 Vibrational             13.376              0.051              0.007

 Optimization completed.
    -- Stationary point found.
 Normal termination of Gaussian 16 at Thu Feb 15 23:42:11 2024.
